+ 0.1 0 1 cbr 1000 ------- 2 0.0 2.0 0 0
- 0.1 0 1 cbr 1000 ------- 2 0.0 2.0 0 0
r 0.1508 0 1 cbr 1000 ------- 2 0.0 2.0 0 0
+ 0.1508 1 2 cbr 1000 ------- 2 0.0 2.0 0 0
- 0.1508 1 2 cbr 1000 ------- 2 0.0 2.0 0 0
r 0.2358 1 2 cbr 1000 ------- 2 0.0 2.0 0 0
+ 0.3 0 1 cbr 1000 ------- 2 0.0 2.0 1 1
- 0.3 0 1 cbr 1000 ------- 2 0.0 2.0 1 1
r 0.3508 0 1 cbr 1000 ------- 2 0.0 2.0 1 1
+ 0.3508 1 2 cbr 1000 ------- 2 0.0 2.0 1 1
- 0.3508 1 2 cbr 1000 ------- 2 0.0 2.0 1 1
r 0.4358 1 2 cbr 1000 ------- 2 0.0 2.0 1 1
+ 0.5 0 1 cbr 1000 ------- 2 0.0 2.0 2 2
- 0.5 0 1 cbr 1000 ------- 2 0.0 2.0 2 2
r 0.5508 0 1 cbr 1000 ------- 2 0.0 2.0 2 2
+ 0.5508 1 2 cbr 1000 ------- 2 0.0 2.0 2 2
- 0.5508 1 2 cbr 1000 ------- 2 0.0 2.0 2 2
r 0.6358 1 2 cbr 1000 ------- 2 0.0 2.0 2 2
+ 0.7 0 1 cbr 1000 ------- 2 0.0 2.0 3 3
- 0.7 0 1 cbr 1000 ------- 2 0.0 2.0 3 3
r 0.7508 0 1 cbr 1000 ------- 2 0.0 2.0 3 3
+ 0.7508 1 2 cbr 1000 ------- 2 0.0 2.0 3 3
- 0.7508 1 2 cbr 1000 ------- 2 0.0 2.0 3 3
r 0.8358 1 2 cbr 1000 ------- 2 0.0 2.0 3 3
+ 0.9 0 1 cbr 1000 ------- 2 0.0 2.0 4 4
- 0.9 0 1 cbr 1000 ------- 2 0.0 2.0 4 4
r 0.9508 0 1 cbr 1000 ------- 2 0.0 2.0 4 4
+ 0.9508 1 2 cbr 1000 ------- 2 0.0 2.0 4 4
- 0.9508 1 2 cbr 1000 ------- 2 0.0 2.0 4 4
r 1.0358 1 2 cbr 1000 ------- 2 0.0 2.0 4 4
+ 1.1 0 1 cbr 1000 ------- 2 0.0 2.0 5 5
- 1.1 0 1 cbr 1000 ------- 2 0.0 2.0 5 5
r 1.1508 0 1 cbr 1000 ------- 2 0.0 2.0 5 5
+ 1.1508 1 2 cbr 1000 ------- 2 0.0 2.0 5 5
- 1.1508 1 2 cbr 1000 ------- 2 0.0 2.0 5 5
r 1.2358 1 2 cbr 1000 ------- 2 0.0 2.0 5 5
+ 1.3 0 1 cbr 1000 ------- 2 0.0 2.0 6 6
- 1.3 0 1 cbr 1000 ------- 2 0.0 2.0 6 6
r 1.3508 0 1 cbr 1000 ------- 2 0.0 2.0 6 6
+ 1.3508 1 2 cbr 1000 ------- 2 0.0 2.0 6 6
- 1.3508 1 2 cbr 1000 ------- 2 0.0 2.0 6 6
r 1.4358 1 2 cbr 1000 ------- 2 0.0 2.0 6 6
+ 1.5 0 1 cbr 1000 ------- 2 0.0 2.0 7 7
- 1.5 0 1 cbr 1000 ------- 2 0.0 2.0 7 7
r 1.5508 0 1 cbr 1000 ------- 2 0.0 2.0 7 7
+ 1.5508 1 2 cbr 1000 ------- 2 0.0 2.0 7 7
- 1.5508 1 2 cbr 1000 ------- 2 0.0 2.0 7 7
r 1.6358 1 2 cbr 1000 ------- 2 0.0 2.0 7 7
+ 1.7 0 1 cbr 1000 ------- 2 0.0 2.0 8 8
- 1.7 0 1 cbr 1000 ------- 2 0.0 2.0 8 8
r 1.7508 0 1 cbr 1000 ------- 2 0.0 2.0 8 8
+ 1.7508 1 2 cbr 1000 ------- 2 0.0 2.0 8 8
- 1.7508 1 2 cbr 1000 ------- 2 0.0 2.0 8 8
r 1.8358 1 2 cbr 1000 ------- 2 0.0 2.0 8 8
+ 1.9 0 1 cbr 1000 ------- 2 0.0 2.0 9 9
- 1.9 0 1 cbr 1000 ------- 2 0.0 2.0 9 9
r 1.9508 0 1 cbr 1000 ------- 2 0.0 2.0 9 9
+ 1.9508 1 2 cbr 1000 ------- 2 0.0 2.0 9 9
- 1.9508 1 2 cbr 1000 ------- 2 0.0 2.0 9 9
r 2.0358 1 2 cbr 1000 ------- 2 0.0 2.0 9 9
+ 2.1 0 1 cbr 1000 ------- 2 0.0 2.0 10 10
- 2.1 0 1 cbr 1000 ------- 2 0.0 2.0 10 10
r 2.1508 0 1 cbr 1000 ------- 2 0.0 2.0 10 10
+ 2.1508 1 2 cbr 1000 ------- 2 0.0 2.0 10 10
- 2.1508 1 2 cbr 1000 ------- 2 0.0 2.0 10 10
r 2.2358 1 2 cbr 1000 ------- 2 0.0 2.0 10 10
+ 2.3 0 1 cbr 1000 ------- 2 0.0 2.0 11 11
- 2.3 0 1 cbr 1000 ------- 2 0.0 2.0 11 11
r 2.3508 0 1 cbr 1000 ------- 2 0.0 2.0 11 11
+ 2.3508 1 2 cbr 1000 ------- 2 0.0 2.0 11 11
- 2.3508 1 2 cbr 1000 ------- 2 0.0 2.0 11 11
r 2.4358 1 2 cbr 1000 ------- 2 0.0 2.0 11 11
+ 2.5 0 1 cbr 1000 ------- 2 0.0 2.0 12 12
- 2.5 0 1 cbr 1000 ------- 2 0.0 2.0 12 12
r 2.5508 0 1 cbr 1000 ------- 2 0.0 2.0 12 12
+ 2.5508 1 2 cbr 1000 ------- 2 0.0 2.0 12 12
- 2.5508 1 2 cbr 1000 ------- 2 0.0 2.0 12 12
r 2.6358 1 2 cbr 1000 ------- 2 0.0 2.0 12 12
+ 2.7 0 1 cbr 1000 ------- 2 0.0 2.0 13 13
- 2.7 0 1 cbr 1000 ------- 2 0.0 2.0 13 13
r 2.7508 0 1 cbr 1000 ------- 2 0.0 2.0 13 13
+ 2.7508 1 2 cbr 1000 ------- 2 0.0 2.0 13 13
- 2.7508 1 2 cbr 1000 ------- 2 0.0 2.0 13 13
r 2.8358 1 2 cbr 1000 ------- 2 0.0 2.0 13 13
+ 2.9 0 1 cbr 1000 ------- 2 0.0 2.0 14 14
- 2.9 0 1 cbr 1000 ------- 2 0.0 2.0 14 14
r 2.9508 0 1 cbr 1000 ------- 2 0.0 2.0 14 14
+ 2.9508 1 2 cbr 1000 ------- 2 0.0 2.0 14 14
- 2.9508 1 2 cbr 1000 ------- 2 0.0 2.0 14 14
r 3.0358 1 2 cbr 1000 ------- 2 0.0 2.0 14 14
+ 3.1 0 1 cbr 1000 ------- 2 0.0 2.0 15 15
- 3.1 0 1 cbr 1000 ------- 2 0.0 2.0 15 15
r 3.1508 0 1 cbr 1000 ------- 2 0.0 2.0 15 15
+ 3.1508 1 2 cbr 1000 ------- 2 0.0 2.0 15 15
- 3.1508 1 2 cbr 1000 ------- 2 0.0 2.0 15 15
r 3.2358 1 2 cbr 1000 ------- 2 0.0 2.0 15 15
+ 3.3 0 1 cbr 1000 ------- 2 0.0 2.0 16 16
- 3.3 0 1 cbr 1000 ------- 2 0.0 2.0 16 16
r 3.3508 0 1 cbr 1000 ------- 2 0.0 2.0 16 16
+ 3.3508 1 2 cbr 1000 ------- 2 0.0 2.0 16 16
- 3.3508 1 2 cbr 1000 ------- 2 0.0 2.0 16 16
r 3.4358 1 2 cbr 1000 ------- 2 0.0 2.0 16 16
+ 3.5 0 1 cbr 1000 ------- 2 0.0 2.0 17 17
- 3.5 0 1 cbr 1000 ------- 2 0.0 2.0 17 17
r 3.5508 0 1 cbr 1000 ------- 2 0.0 2.0 17 17
+ 3.5508 1 2 cbr 1000 ------- 2 0.0 2.0 17 17
- 3.5508 1 2 cbr 1000 ------- 2 0.0 2.0 17 17
r 3.6358 1 2 cbr 1000 ------- 2 0.0 2.0 17 17
+ 3.7 0 1 cbr 1000 ------- 2 0.0 2.0 18 18
- 3.7 0 1 cbr 1000 ------- 2 0.0 2.0 18 18
r 3.7508 0 1 cbr 1000 ------- 2 0.0 2.0 18 18
+ 3.7508 1 2 cbr 1000 ------- 2 0.0 2.0 18 18
- 3.7508 1 2 cbr 1000 ------- 2 0.0 2.0 18 18
r 3.8358 1 2 cbr 1000 ------- 2 0.0 2.0 18 18
+ 3.9 0 1 cbr 1000 ------- 2 0.0 2.0 19 19
- 3.9 0 1 cbr 1000 ------- 2 0.0 2.0 19 19
r 3.9508 0 1 cbr 1000 ------- 2 0.0 2.0 19 19
+ 3.9508 1 2 cbr 1000 ------- 2 0.0 2.0 19 19
- 3.9508 1 2 cbr 1000 ------- 2 0.0 2.0 19 19
r 4.0358 1 2 cbr 1000 ------- 2 0.0 2.0 19 19
+ 4.1 0 1 cbr 1000 ------- 2 0.0 2.0 20 20
- 4.1 0 1 cbr 1000 ------- 2 0.0 2.0 20 20
r 4.1508 0 1 cbr 1000 ------- 2 0.0 2.0 20 20
+ 4.1508 1 2 cbr 1000 ------- 2 0.0 2.0 20 20
- 4.1508 1 2 cbr 1000 ------- 2 0.0 2.0 20 20
r 4.2358 1 2 cbr 1000 ------- 2 0.0 2.0 20 20
+ 4.3 0 1 cbr 1000 ------- 2 0.0 2.0 21 21
- 4.3 0 1 cbr 1000 ------- 2 0.0 2.0 21 21
r 4.3508 0 1 cbr 1000 ------- 2 0.0 2.0 21 21
+ 4.3508 1 2 cbr 1000 ------- 2 0.0 2.0 21 21
- 4.3508 1 2 cbr 1000 ------- 2 0.0 2.0 21 21
r 4.4358 1 2 cbr 1000 ------- 2 0.0 2.0 21 21
+ 4.5 0 1 cbr 1000 ------- 2 0.0 2.0 22 22
- 4.5 0 1 cbr 1000 ------- 2 0.0 2.0 22 22
r 4.5508 0 1 cbr 1000 ------- 2 0.0 2.0 22 22
+ 4.5508 1 2 cbr 1000 ------- 2 0.0 2.0 22 22
- 4.5508 1 2 cbr 1000 ------- 2 0.0 2.0 22 22
r 4.6358 1 2 cbr 1000 ------- 2 0.0 2.0 22 22
+ 4.7 0 1 cbr 1000 ------- 2 0.0 2.0 23 23
- 4.7 0 1 cbr 1000 ------- 2 0.0 2.0 23 23
r 4.7508 0 1 cbr 1000 ------- 2 0.0 2.0 23 23
+ 4.7508 1 2 cbr 1000 ------- 2 0.0 2.0 23 23
- 4.7508 1 2 cbr 1000 ------- 2 0.0 2.0 23 23
r 4.8358 1 2 cbr 1000 ------- 2 0.0 2.0 23 23
+ 4.9 0 1 cbr 1000 ------- 2 0.0 2.0 24 24
- 4.9 0 1 cbr 1000 ------- 2 0.0 2.0 24 24
r 4.9508 0 1 cbr 1000 ------- 2 0.0 2.0 24 24
+ 4.9508 1 2 cbr 1000 ------- 2 0.0 2.0 24 24
- 4.9508 1 2 cbr 1000 ------- 2 0.0 2.0 24 24
r 5.0358 1 2 cbr 1000 ------- 2 0.0 2.0 24 24
+ 5.1 0 1 cbr 1000 ------- 2 0.0 2.0 25 25
- 5.1 0 1 cbr 1000 ------- 2 0.0 2.0 25 25
r 5.1508 0 1 cbr 1000 ------- 2 0.0 2.0 25 25
+ 5.1508 1 2 cbr 1000 ------- 2 0.0 2.0 25 25
- 5.1508 1 2 cbr 1000 ------- 2 0.0 2.0 25 25
r 5.2358 1 2 cbr 1000 ------- 2 0.0 2.0 25 25
+ 5.3 0 1 cbr 1000 ------- 2 0.0 2.0 26 26
- 5.3 0 1 cbr 1000 ------- 2 0.0 2.0 26 26
r 5.3508 0 1 cbr 1000 ------- 2 0.0 2.0 26 26
+ 5.3508 1 2 cbr 1000 ------- 2 0.0 2.0 26 26
- 5.3508 1 2 cbr 1000 ------- 2 0.0 2.0 26 26
r 5.4358 1 2 cbr 1000 ------- 2 0.0 2.0 26 26
+ 5.5 0 1 cbr 1000 ------- 2 0.0 2.0 27 27
- 5.5 0 1 cbr 1000 ------- 2 0.0 2.0 27 27
r 5.5508 0 1 cbr 1000 ------- 2 0.0 2.0 27 27
+ 5.5508 1 2 cbr 1000 ------- 2 0.0 2.0 27 27
- 5.5508 1 2 cbr 1000 ------- 2 0.0 2.0 27 27
r 5.6358 1 2 cbr 1000 ------- 2 0.0 2.0 27 27
+ 5.7 0 1 cbr 1000 ------- 2 0.0 2.0 28 28
- 5.7 0 1 cbr 1000 ------- 2 0.0 2.0 28 28
r 5.7508 0 1 cbr 1000 ------- 2 0.0 2.0 28 28
+ 5.7508 1 2 cbr 1000 ------- 2 0.0 2.0 28 28
- 5.7508 1 2 cbr 1000 ------- 2 0.0 2.0 28 28
r 5.8358 1 2 cbr 1000 ------- 2 0.0 2.0 28 28
+ 5.9 0 1 cbr 1000 ------- 2 0.0 2.0 29 29
- 5.9 0 1 cbr 1000 ------- 2 0.0 2.0 29 29
r 5.9508 0 1 cbr 1000 ------- 2 0.0 2.0 29 29
+ 5.9508 1 2 cbr 1000 ------- 2 0.0 2.0 29 29
- 5.9508 1 2 cbr 1000 ------- 2 0.0 2.0 29 29
r 6.0358 1 2 cbr 1000 ------- 2 0.0 2.0 29 29
+ 6.1 0 1 cbr 1000 ------- 2 0.0 2.0 30 30
- 6.1 0 1 cbr 1000 ------- 2 0.0 2.0 30 30
r 6.1508 0 1 cbr 1000 ------- 2 0.0 2.0 30 30
+ 6.1508 1 2 cbr 1000 ------- 2 0.0 2.0 30 30
- 6.1508 1 2 cbr 1000 ------- 2 0.0 2.0 30 30
r 6.2358 1 2 cbr 1000 ------- 2 0.0 2.0 30 30
+ 6.3 0 1 cbr 1000 ------- 2 0.0 2.0 31 31
- 6.3 0 1 cbr 1000 ------- 2 0.0 2.0 31 31
r 6.3508 0 1 cbr 1000 ------- 2 0.0 2.0 31 31
+ 6.3508 1 2 cbr 1000 ------- 2 0.0 2.0 31 31
- 6.3508 1 2 cbr 1000 ------- 2 0.0 2.0 31 31
r 6.4358 1 2 cbr 1000 ------- 2 0.0 2.0 31 31
+ 6.5 0 1 cbr 1000 ------- 2 0.0 2.0 32 32
- 6.5 0 1 cbr 1000 ------- 2 0.0 2.0 32 32
r 6.5508 0 1 cbr 1000 ------- 2 0.0 2.0 32 32
+ 6.5508 1 2 cbr 1000 ------- 2 0.0 2.0 32 32
- 6.5508 1 2 cbr 1000 ------- 2 0.0 2.0 32 32
r 6.6358 1 2 cbr 1000 ------- 2 0.0 2.0 32 32
+ 6.7 0 1 cbr 1000 ------- 2 0.0 2.0 33 33
- 6.7 0 1 cbr 1000 ------- 2 0.0 2.0 33 33
r 6.7508 0 1 cbr 1000 ------- 2 0.0 2.0 33 33
+ 6.7508 1 2 cbr 1000 ------- 2 0.0 2.0 33 33
- 6.7508 1 2 cbr 1000 ------- 2 0.0 2.0 33 33
r 6.8358 1 2 cbr 1000 ------- 2 0.0 2.0 33 33
+ 6.9 0 1 cbr 1000 ------- 2 0.0 2.0 34 34
- 6.9 0 1 cbr 1000 ------- 2 0.0 2.0 34 34
r 6.9508 0 1 cbr 1000 ------- 2 0.0 2.0 34 34
+ 6.9508 1 2 cbr 1000 ------- 2 0.0 2.0 34 34
- 6.9508 1 2 cbr 1000 ------- 2 0.0 2.0 34 34
r 7.0358 1 2 cbr 1000 ------- 2 0.0 2.0 34 34
+ 7.1 0 1 cbr 1000 ------- 2 0.0 2.0 35 35
- 7.1 0 1 cbr 1000 ------- 2 0.0 2.0 35 35
r 7.1508 0 1 cbr 1000 ------- 2 0.0 2.0 35 35
+ 7.1508 1 2 cbr 1000 ------- 2 0.0 2.0 35 35
- 7.1508 1 2 cbr 1000 ------- 2 0.0 2.0 35 35
r 7.2358 1 2 cbr 1000 ------- 2 0.0 2.0 35 35
+ 7.3 0 1 cbr 1000 ------- 2 0.0 2.0 36 36
- 7.3 0 1 cbr 1000 ------- 2 0.0 2.0 36 36
r 7.3508 0 1 cbr 1000 ------- 2 0.0 2.0 36 36
+ 7.3508 1 2 cbr 1000 ------- 2 0.0 2.0 36 36
- 7.3508 1 2 cbr 1000 ------- 2 0.0 2.0 36 36
r 7.4358 1 2 cbr 1000 ------- 2 0.0 2.0 36 36
+ 7.5 0 1 cbr 1000 ------- 2 0.0 2.0 37 37
- 7.5 0 1 cbr 1000 ------- 2 0.0 2.0 37 37
r 7.5508 0 1 cbr 1000 ------- 2 0.0 2.0 37 37
+ 7.5508 1 2 cbr 1000 ------- 2 0.0 2.0 37 37
- 7.5508 1 2 cbr 1000 ------- 2 0.0 2.0 37 37
r 7.6358 1 2 cbr 1000 ------- 2 0.0 2.0 37 37
+ 7.7 0 1 cbr 1000 ------- 2 0.0 2.0 38 38
- 7.7 0 1 cbr 1000 ------- 2 0.0 2.0 38 38
r 7.7508 0 1 cbr 1000 ------- 2 0.0 2.0 38 38
+ 7.7508 1 2 cbr 1000 ------- 2 0.0 2.0 38 38
- 7.7508 1 2 cbr 1000 ------- 2 0.0 2.0 38 38
r 7.8358 1 2 cbr 1000 ------- 2 0.0 2.0 38 38
+ 7.9 0 1 cbr 1000 ------- 2 0.0 2.0 39 39
- 7.9 0 1 cbr 1000 ------- 2 0.0 2.0 39 39
r 7.9508 0 1 cbr 1000 ------- 2 0.0 2.0 39 39
+ 7.9508 1 2 cbr 1000 ------- 2 0.0 2.0 39 39
- 7.9508 1 2 cbr 1000 ------- 2 0.0 2.0 39 39
r 8.0358 1 2 cbr 1000 ------- 2 0.0 2.0 39 39
+ 8.1 0 1 cbr 1000 ------- 2 0.0 2.0 40 40
- 8.1 0 1 cbr 1000 ------- 2 0.0 2.0 40 40
r 8.1508 0 1 cbr 1000 ------- 2 0.0 2.0 40 40
+ 8.1508 1 2 cbr 1000 ------- 2 0.0 2.0 40 40
- 8.1508 1 2 cbr 1000 ------- 2 0.0 2.0 40 40
r 8.2358 1 2 cbr 1000 ------- 2 0.0 2.0 40 40
+ 8.3 0 1 cbr 1000 ------- 2 0.0 2.0 41 41
- 8.3 0 1 cbr 1000 ------- 2 0.0 2.0 41 41
r 8.3508 0 1 cbr 1000 ------- 2 0.0 2.0 41 41
+ 8.3508 1 2 cbr 1000 ------- 2 0.0 2.0 41 41
- 8.3508 1 2 cbr 1000 ------- 2 0.0 2.0 41 41
r 8.4358 1 2 cbr 1000 ------- 2 0.0 2.0 41 41
+ 8.5 0 1 cbr 1000 ------- 2 0.0 2.0 42 42
- 8.5 0 1 cbr 1000 ------- 2 0.0 2.0 42 42
r 8.5508 0 1 cbr 1000 ------- 2 0.0 2.0 42 42
+ 8.5508 1 2 cbr 1000 ------- 2 0.0 2.0 42 42
- 8.5508 1 2 cbr 1000 ------- 2 0.0 2.0 42 42
r 8.6358 1 2 cbr 1000 ------- 2 0.0 2.0 42 42
+ 8.7 0 1 cbr 1000 ------- 2 0.0 2.0 43 43
- 8.7 0 1 cbr 1000 ------- 2 0.0 2.0 43 43
r 8.7508 0 1 cbr 1000 ------- 2 0.0 2.0 43 43
+ 8.7508 1 2 cbr 1000 ------- 2 0.0 2.0 43 43
- 8.7508 1 2 cbr 1000 ------- 2 0.0 2.0 43 43
r 8.8358 1 2 cbr 1000 ------- 2 0.0 2.0 43 43
+ 8.9 0 1 cbr 1000 ------- 2 0.0 2.0 44 44
- 8.9 0 1 cbr 1000 ------- 2 0.0 2.0 44 44
r 8.9508 0 1 cbr 1000 ------- 2 0.0 2.0 44 44
+ 8.9508 1 2 cbr 1000 ------- 2 0.0 2.0 44 44
- 8.9508 1 2 cbr 1000 ------- 2 0.0 2.0 44 44
r 9.0358 1 2 cbr 1000 ------- 2 0.0 2.0 44 44
+ 9.1 0 1 cbr 1000 ------- 2 0.0 2.0 45 45
- 9.1 0 1 cbr 1000 ------- 2 0.0 2.0 45 45
r 9.1508 0 1 cbr 1000 ------- 2 0.0 2.0 45 45
+ 9.1508 1 2 cbr 1000 ------- 2 0.0 2.0 45 45
- 9.1508 1 2 cbr 1000 ------- 2 0.0 2.0 45 45
r 9.2358 1 2 cbr 1000 ------- 2 0.0 2.0 45 45
+ 9.3 0 1 cbr 1000 ------- 2 0.0 2.0 46 46
- 9.3 0 1 cbr 1000 ------- 2 0.0 2.0 46 46
r 9.3508 0 1 cbr 1000 ------- 2 0.0 2.0 46 46
+ 9.3508 1 2 cbr 1000 ------- 2 0.0 2.0 46 46
- 9.3508 1 2 cbr 1000 ------- 2 0.0 2.0 46 46
r 9.4358 1 2 cbr 1000 ------- 2 0.0 2.0 46 46
+ 9.5 0 1 cbr 1000 ------- 2 0.0 2.0 47 47
- 9.5 0 1 cbr 1000 ------- 2 0.0 2.0 47 47
r 9.5508 0 1 cbr 1000 ------- 2 0.0 2.0 47 47
+ 9.5508 1 2 cbr 1000 ------- 2 0.0 2.0 47 47
- 9.5508 1 2 cbr 1000 ------- 2 0.0 2.0 47 47
r 9.6358 1 2 cbr 1000 ------- 2 0.0 2.0 47 47
+ 9.7 0 1 cbr 1000 ------- 2 0.0 2.0 48 48
- 9.7 0 1 cbr 1000 ------- 2 0.0 2.0 48 48
r 9.7508 0 1 cbr 1000 ------- 2 0.0 2.0 48 48
+ 9.7508 1 2 cbr 1000 ------- 2 0.0 2.0 48 48
- 9.7508 1 2 cbr 1000 ------- 2 0.0 2.0 48 48
r 9.8358 1 2 cbr 1000 ------- 2 0.0 2.0 48 48
+ 9.9 0 1 cbr 1000 ------- 2 0.0 2.0 49 49
- 9.9 0 1 cbr 1000 ------- 2 0.0 2.0 49 49
r 9.9508 0 1 cbr 1000 ------- 2 0.0 2.0 49 49
+ 9.9508 1 2 cbr 1000 ------- 2 0.0 2.0 49 49
- 9.9508 1 2 cbr 1000 ------- 2 0.0 2.0 49 49
r 10.0358 1 2 cbr 1000 ------- 2 0.0 2.0 49 49
+ 10.1 0 1 cbr 1000 ------- 2 0.0 2.0 50 50
- 10.1 0 1 cbr 1000 ------- 2 0.0 2.0 50 50
r 10.1508 0 1 cbr 1000 ------- 2 0.0 2.0 50 50
+ 10.1508 1 2 cbr 1000 ------- 2 0.0 2.0 50 50
- 10.1508 1 2 cbr 1000 ------- 2 0.0 2.0 50 50
r 10.2358 1 2 cbr 1000 ------- 2 0.0 2.0 50 50
